% Model:              SimulationA.mph
% Version:            COMSOL 6.1.0.357
% Date:               Dec 8 2023, 16:29
% Table:              Evaluation Group 1 - 
% Time (s)               es.Q0_1/es.V0_1 (F)      Displacement field, X-component (µm), Point: 293
0                        2.2373226993690762E-13   7.689553373009151E-69
1.0E-5                   2.2373226993737806E-13   1.765775828946251E-17
2.0E-5                   2.2373226994451158E-13   5.180782614397114E-16
3.0000000000000004E-5    2.2373226997270479E-13   3.2449484007519614E-15
3.9999999999999996E-5    2.237322700448399E-13    1.2078344924248117E-14
5.0E-5                   2.237322701899589E-13    3.438229512957936E-14
6.000000000000001E-5     2.2373227043654788E-13   7.895924790943089E-14
7.000000000000001E-5     2.237322708137834E-13    1.5776330014584452E-13
8.0E-5                   2.2373227134049776E-13   2.804118495463127E-13
9.0E-5                   2.2373227203060618E-13   4.556003326398927E-13
1.0E-4                   2.2373227287719502E-13   6.877406601169791E-13
1.1E-4                   2.2373227387050178E-13   9.7915344516575E-13
1.2000000000000002E-4    2.237322749809197E-13    1.3267254591408041E-12
1.3000000000000002E-4    2.2373227614956017E-13   1.7144441443340728E-12
1.4000000000000001E-4    2.2373227733959786E-13   2.135158307810165E-12
1.5000000000000001E-4    2.2373227850857752E-13   2.5795479945760357E-12
1.6E-4                   2.2373227956917387E-13   3.024613986601459E-12
1.7E-4                   2.237322804648686E-13    3.4567310251249933E-12
1.8E-4                   2.237322811451555E-13    3.864105895541958E-12
1.9E-4                   2.2373228158406432E-13   4.224035070985173E-12
2.0E-4                   2.2373228175087182E-13   4.515138853381776E-12
2.1E-4                   2.2373228158667657E-13   4.7239143259851045E-12
2.2E-4                   2.237322811650906E-13    4.8494765040665334E-12
2.3E-4                   2.2373228050019066E-13   4.8828003051338936E-12
2.4000000000000003E-4    2.2373227957206138E-13   4.812611018854E-12
2.5E-4                   2.2373227853075968E-13   4.675307440743233E-12
2.6000000000000003E-4    2.237322773647102E-13    4.457259060684592E-12
2.7E-4                   2.2373227616061356E-13   4.1867031713870235E-12
2.8000000000000003E-4    2.2373227498064764E-13   3.878534083661734E-12
2.9E-4                   2.237322738691291E-13    3.5431734339910636E-12
3.0000000000000003E-4    2.2373227286967388E-13   3.196575852959935E-12
3.1E-4                   2.237322720328131E-13    2.8512738662354758E-12
3.2E-4                   2.237322713393093E-13    2.512917316847472E-12
3.3000000000000005E-4    2.2373227083711653E-13   2.195097581276364E-12
3.4E-4                   2.237322704631855E-13    1.8962126041099603E-12
3.5000000000000005E-4    2.2373227019779992E-13   1.6208600169010745E-12
3.6E-4                   2.2373227003868784E-13   1.372274499005571E-12
3.7000000000000005E-4    2.2373226997032293E-13   1.1471316786208478E-12
3.8E-4                   2.237322699466121E-13    9.43804018267935E-13
3.9000000000000005E-4    2.2373226993783168E-13   7.610808535591305E-13
4.0E-4                   2.2373226994255387E-13   5.992241813006455E-13
4.1000000000000005E-4    2.2373226993740466E-13   4.597579368627262E-13
4.2E-4                   2.2373226994399512E-13   3.419900161374235E-13
4.3000000000000004E-4    2.237322699718619E-13    2.4508981899243255E-13
4.4E-4                   2.2373227004423963E-13   1.7076436948980057E-13
4.5000000000000004E-4    2.2373227018902024E-13   1.2446344133681684E-13
4.6E-4                   2.237322704367091E-13    1.1501493798115477E-13
4.7000000000000004E-4    2.2373227081420914E-13   1.5315896914373826E-13
4.8000000000000007E-4    2.2373227134150162E-13   2.4798443509628135E-13
4.900000000000001E-4     2.237322720311961E-13    4.07301615827949E-13
5.0E-4                   2.2373227288028392E-13   6.321216444964355E-13
5.1E-4                   2.237322738732683E-13    9.196852390548503E-13
5.200000000000001E-4     2.2373227498112668E-13   1.2628137060674424E-12
5.300000000000001E-4     2.2373227616201973E-13   1.6532393945313559E-12
5.4E-4                   2.2373227736065846E-13   2.080098696081332E-12
5.5E-4                   2.2373227851606564E-13   2.5299610382772485E-12
5.600000000000001E-4     2.237322795746319E-13    2.9839966709001414E-12
5.700000000000001E-4     2.2373228046775336E-13   3.42496632619948E-12
5.8E-4                   2.2373228114173052E-13   3.836053865660682E-12
5.9E-4                   2.2373228156720372E-13   4.2058394928357264E-12
6.000000000000001E-4     2.2373228171146445E-13   4.518835861062543E-12
6.100000000000001E-4     2.2373228156390853E-13   4.760275673608676E-12
6.2E-4                   2.2373228113167412E-13   4.91178898173123E-12
6.3E-4                   2.2373228045222686E-13   4.963147203268823E-12
6.4E-4                   2.2373227956440753E-13   4.910596197033148E-12
6.500000000000001E-4     2.237322784963135E-13    4.764336768299845E-12
6.600000000000001E-4     2.2373227733994241E-13   4.529624335647338E-12
6.7E-4                   2.2373227615639607E-13   4.222918914552505E-12
6.8E-4                   2.2373227496939184E-13   3.868196212465709E-12
6.900000000000001E-4     2.2373227386336026E-13   3.5006289164606094E-12
7.000000000000001E-4     2.2373227288172732E-13   3.1412512647201436E-12
7.1E-4                   2.2373227203609976E-13   2.785446854348019E-12
7.2E-4                   2.2373227134731357E-13   2.464122602137416E-12
7.300000000000001E-4     2.237322708196144E-13    2.1795021616046834E-12
7.400000000000001E-4     2.2373227045391547E-13   1.9116562091134307E-12
7.5E-4                   2.2373227020523783E-13   1.6443941881235363E-12
7.6E-4                   2.2373227004908227E-13   1.3733763526276116E-12
7.700000000000001E-4     2.2373226998644228E-13   1.1235246414734155E-12
7.800000000000001E-4     2.2373226995613078E-13   8.690244852988114E-13
7.9E-4                   2.2373226993740345E-13   6.148776804634167E-13
8.0E-4                   2.2373226993696204E-13   4.585467259369137E-13
8.100000000000001E-4     NaN                      4.1097623720820657E-13
8.200000000000001E-4     NaN                      3.5569686775682614E-13
8.300000000000001E-4     NaN                      2.9213961266185824E-13
8.4E-4                   NaN                      2.272852513468478E-13
8.500000000000001E-4     NaN                      1.6243089003183666E-13
8.600000000000001E-4     NaN                      1.2850868508546974E-13
8.700000000000001E-4     NaN                      1.0141673825939382E-13
8.8E-4                   NaN                      7.432479143331819E-14
8.900000000000001E-4     NaN                      4.723284460724227E-14
9.000000000000001E-4     NaN                      2.014089778116635E-14
9.100000000000001E-4     NaN                      8.277415238119616E-15
9.2E-4                   NaN                      5.0375340365982145E-15
9.3E-4                   NaN                      1.797652835076776E-15
9.400000000000001E-4     NaN                      -1.4422283664446653E-15
9.500000000000001E-4     NaN                      -4.682109567966104E-15
9.600000000000001E-4     NaN                      -7.921990769487546E-15
9.7E-4                   NaN                      -1.1161871971008946E-14
9.800000000000002E-4     NaN                      -1.4401753172530422E-14
9.9E-4                   NaN                      -1.764163437405179E-14
0.001                    NaN                      -2.088151557557323E-14
0.00101                  NaN                      -2.3028272408425876E-14
0.00102                  NaN                      -2.2323468666384475E-14
0.00103                  NaN                      -2.161866492434307E-14
0.0010400000000000001    NaN                      -2.0913861182301667E-14
0.0010500000000000002    NaN                      -2.0209057440260266E-14
0.0010600000000000002    NaN                      -1.9504253698218862E-14
0.00107                  NaN                      -1.8799449956177474E-14
0.00108                  NaN                      -1.809464621413607E-14
0.00109                  NaN                      -1.738984247209467E-14
0.0011                   NaN                      -1.6685038730053265E-14
0.00111                  NaN                      -1.5980234988011864E-14
0.0011200000000000001    NaN                      -1.5275431245970457E-14
0.0011300000000000001    NaN                      -1.4570627503929056E-14
0.0011400000000000002    NaN                      -1.3865823761887654E-14
0.0011500000000000002    NaN                      -1.316102001984625E-14
0.00116                  NaN                      -1.2456216277804863E-14
0.00117                  NaN                      -1.175141253576346E-14
0.00118                  NaN                      -1.1046608793722058E-14
0.00119                  NaN                      -1.0341805051680654E-14
0.0012000000000000001    NaN                      -9.63700130963925E-15
0.0012100000000000001    NaN                      -9.029987720073884E-15
0.0012200000000000002    NaN                      -8.678072773815787E-15
0.0012300000000000002    NaN                      -8.32615782755769E-15
0.00124                  NaN                      -7.974242881299602E-15
0.00125                  NaN                      -7.622327935041505E-15
0.00126                  NaN                      -7.270412988783408E-15
0.00127                  NaN                      -6.9184980425253105E-15
0.00128                  NaN                      -6.566583096267216E-15
0.0012900000000000001    NaN                      -6.214668150009118E-15
0.0013000000000000002    NaN                      -5.862753203751021E-15
0.0013100000000000002    NaN                      -5.510838257492925E-15
0.0013200000000000002    NaN                      -5.158923311234828E-15
0.00133                  NaN                      -4.80700836497674E-15
0.00134                  NaN                      -4.455093418718643E-15
0.00135                  NaN                      -4.103178472460545E-15
0.00136                  NaN                      -3.751263526202448E-15
0.0013700000000000001    NaN                      -3.3993485799443527E-15
0.0013800000000000002    NaN                      -3.047433633686256E-15
0.0013900000000000002    NaN                      -2.695518687428159E-15
0.0014000000000000002    NaN                      -2.3436037411700627E-15
0.00141                  NaN                      -2.0647738026080837E-15
0.00142                  NaN                      -1.9765958452253947E-15
0.00143                  NaN                      -1.8884178878427052E-15
0.00144                  NaN                      -1.8002399304600162E-15
0.0014500000000000001    NaN                      -1.7120619730773266E-15
0.0014600000000000001    NaN                      -1.6238840156946371E-15
0.0014700000000000002    NaN                      -1.5357060583119479E-15
0.0014800000000000002    NaN                      -1.4475281009292586E-15
0.0014900000000000002    NaN                      -1.3593501435465692E-15
0.0015                   NaN                      -1.2711721861638821E-15
0.00151                  NaN                      -1.1829942287811927E-15
0.00152                  NaN                      -1.0948162713985033E-15
0.0015300000000000001    NaN                      -1.006638314015814E-15
0.0015400000000000001    NaN                      -9.184603566331248E-16
0.0015500000000000002    NaN                      -8.302823992504354E-16
0.0015600000000000002    NaN                      -7.421044418677461E-16
0.0015700000000000002    NaN                      -6.539264844850567E-16
0.00158                  NaN                      -5.657485271023693E-16
0.00159                  NaN                      -4.775705697196801E-16
0.0016                   NaN                      -3.8939261233699074E-16
0.00161                  NaN                      -3.214723661284601E-16
0.0016200000000000001    NaN                      -3.063970588651424E-16
0.0016300000000000002    NaN                      -2.9132175160182467E-16
0.0016400000000000002    NaN                      -2.762464443385069E-16
0.0016500000000000002    NaN                      -2.6117113707518914E-16
0.0016600000000000002    NaN                      -2.4609582981187137E-16
0.00167                  NaN                      -2.31020522548554E-16
0.00168                  NaN                      -2.159452152852362E-16
0.00169                  NaN                      -2.0086990802191852E-16
0.0017000000000000001    NaN                      -1.8579460075860076E-16
0.0017100000000000001    NaN                      -1.7071929349528302E-16
0.0017200000000000002    NaN                      -1.5564398623196528E-16
0.0017300000000000002    NaN                      -1.4056867896864752E-16
0.0017400000000000002    NaN                      -1.254933717053298E-16
0.00175                  NaN                      -1.1041806444201235E-16
0.00176                  NaN                      -9.534275717869462E-17
0.00177                  NaN                      -8.026744991537687E-17
0.0017800000000000001    NaN                      -6.519214265205913E-17
0.0017900000000000001    NaN                      -5.011683538874138E-17
0.0018000000000000002    NaN                      -3.504152812542364E-17
0.0018100000000000002    NaN                      -2.373994244566863E-17
0.0018200000000000002    NaN                      -2.2282612366417705E-17
0.0018300000000000002    NaN                      -2.0825282287166776E-17
0.00184                  NaN                      -1.9367952207915883E-17
0.00185                  NaN                      -1.791062212866496E-17
0.00186                  NaN                      -1.6453292049414034E-17
0.0018700000000000001    NaN                      -1.4995961970163108E-17
0.0018800000000000002    NaN                      -1.3538631890912181E-17
0.0018900000000000002    NaN                      -1.2081301811661258E-17
0.0019000000000000002    NaN                      -1.062397173241033E-17
0.0019100000000000002    NaN                      -9.166641653159404E-18
0.0019200000000000003    NaN                      -7.709311573908478E-18
0.00193                  NaN                      -6.2519814946575845E-18
0.00194                  NaN                      -4.794651415406657E-18
0.0019500000000000001    NaN                      -3.3373213361557322E-18
0.0019600000000000004    NaN                      -1.8799912569047736E-18
0.00197                  NaN                      -4.226611776539106E-19
0.00198                  NaN                      1.0346689015970154E-18
0.00199                  NaN                      2.4919989808479414E-18
0.002                    NaN                      3.949329060098867E-18
